TITLE="SampleCpLoop"
VARIABLES = "X" "Y" "Z" "P" "Rho" "U" "V" "W"
ZONE T="WallUpper", N=3, E=2, DATAPACKING=POINT, ZONETYPE=FELINESEG
1.0 0.0 0.0 2.0 1.0 1.0 0.0 0.0
0.5 0.0 0.0 1.5 1.0 1.0 0.0 0.0
0.0 0.0 0.0 1.0 1.0 1.0 0.0 0.0
1 2
2 3
ZONE T="WallLower", N=3, E=2, DATAPACKING=POINT, ZONETYPE=FELINESEG
0.0 0.0 0.0 1.0 1.0 1.0 0.0 0.0
0.5 0.0 0.0 1.5 1.0 1.0 0.0 0.0
1.0 0.0 0.0 2.0 1.0 1.0 0.0 0.0
1 2
2 3
ZONE T="Inlet", N=1, E=0, DATAPACKING=POINT, ZONETYPE=FELINESEG
10.0 0.0 0.0 0.0 1.0 1.0 0.0 0.0
