TITLE="Sample"
VARIABLES = "X" "Y" "Z"
ZONE T="Wall", N=2, E=1, DATAPACKING=POINT, ZONETYPE=FELINESEG
0 0 0
1 0 0
