TITLE="Sample"
VARIABLES = "X" "Y" "Z"
ZONE T="Wall", N=4, E=1, DATAPACKING=POINT, ZONETYPE=FEQUADRILATERAL
0 0 0
1 0 0
1 1 0
0 1 0
1 2 3 4
